  -500.000000       4.92885780
   0.00000000       4.65990210
   250.000000       4.39094639
   500.000000       4.12199116
   501.000000       4.12199116
   750.000000       3.85303521 
   1000.00000       3.58407974 
   1001.00000       3.58407974 
   1003.00000       3.58407974 
   1004.00000       3.58407974 
   1253.00000       2.93805981 
   1503.00000       2.29203987
   1504.00000       2.29203987 
   1753.00000       1.64601994 
   2003.00000       1.00000000
   2004.00000       1.00000000
   2503.00000       0.35398006 