   970.00             4.58407974 
   1002.00000         4.58407974 